VARIABLES="iterations", "scaled residual"
ZONE T=""
0 1
0 0.0449808
1 0.00101971
2 2.65215e-05
3 9.26247e-07
4 3.72634e-08
5 1.53943e-09
6 6.24999e-11
