VARIABLES="iterations", "scaled residual"
ZONE T=""
0 1
0 8.58459
1 0.475302
2 0.361782
3 0.29383
4 0.253022
5 0.221563
6 0.198158
7 0.179213
8 0.163909
9 0.151117
10 0.140346
11 0.131129
12 0.123183
13 0.116268
14 0.110212
15 0.104874
16 0.100142
17 0.0959212
18 0.0921357
19 0.0887206
20 0.0856217
21 0.0827932
22 0.0801964
23 0.0777986
24 0.0755721
25 0.0734937
26 0.0715436
27 0.0697052
28 0.0679645
29 0.0663097
30 0.0647307
31 0.0632192
32 0.061768
33 0.060371
34 0.0590232
35 0.0577202
36 0.0564582
37 0.0552342
38 0.0540453
39 0.0528893
40 0.0517641
41 0.0506679
42 0.0495992
43 0.0485568
44 0.0475392
45 0.0465456
46 0.0455748
47 0.0446262
48 0.0436988
49 0.0427921
50 0.0419052
51 0.0410377
52 0.040189
53 0.0393585
54 0.0385457
55 0.0377502
56 0.0369716
57 0.0362094
58 0.0354633
59 0.0347327
60 0.0340175
61 0.0333172
62 0.0326315
63 0.0319601
64 0.0313026
65 0.0306587
66 0.0300282
67 0.0294108
68 0.0288061
69 0.0282139
70 0.027634
71 0.027066
72 0.0265097
73 0.0259649
74 0.0254314
75 0.0249088
76 0.024397
77 0.0238958
78 0.0234049
79 0.022924
80 0.0224531
81 0.0219919
82 0.0215401
83 0.0210977
84 0.0206643
85 0.0202398
86 0.0198241
87 0.0194169
88 0.0190181
89 0.0186275
90 0.0182449
91 0.0178702
92 0.0175032
93 0.0171437
94 0.0167916
95 0.0164468
96 0.016109
97 0.0157782
98 0.0154541
99 0.0151368
100 0.0148259
101 0.0145214
102 0.0142232
103 0.0139311
104 0.013645
105 0.0133648
106 0.0130903
107 0.0128215
108 0.0125582
109 0.0123003
110 0.0120477
111 0.0118003
112 0.011558
113 0.0113206
114 0.0110881
115 0.0108604
116 0.0106374
117 0.010419
118 0.010205
119 0.00999543
120 0.00979017
121 0.00958912
122 0.0093922
123 0.00919933
124 0.00901041
125 0.00882538
126 0.00864415
127 0.00846663
128 0.00829277
129 0.00812247
130 0.00795567
131 0.00779229
132 0.00763228
133 0.00747554
134 0.00732203
135 0.00717167
136 0.00702439
137 0.00688014
138 0.00673886
139 0.00660047
140 0.00646493
141 0.00633216
142 0.00620213
143 0.00607477
144 0.00595002
145 0.00582783
146 0.00570815
147 0.00559093
148 0.00547612
149 0.00536367
150 0.00525352
151 0.00514564
152 0.00503997
153 0.00493647
154 0.0048351
155 0.00473581
156 0.00463855
157 0.0045433
158 0.00445
159 0.00435862
160 0.00426911
161 0.00418144
162 0.00409557
163 0.00401147
164 0.00392909
165 0.00384841
166 0.00376938
167 0.00369197
168 0.00361616
169 0.0035419
170 0.00346916
171 0.00339792
172 0.00332814
173 0.0032598
174 0.00319286
175 0.00312729
176 0.00306307
177 0.00300017
178 0.00293856
179 0.00287821
180 0.00281911
181 0.00276122
182 0.00270451
183 0.00264897
184 0.00259458
185 0.00254129
186 0.00248911
187 0.00243799
188 0.00238793
189 0.00233889
190 0.00229086
191 0.00224382
192 0.00219774
193 0.00215261
194 0.0021084
195 0.0020651
196 0.0020227
197 0.00198116
198 0.00194048
199 0.00190063
200 0.0018616
201 0.00182337
202 0.00178592
203 0.00174925
204 0.00171333
205 0.00167814
206 0.00164368
207 0.00160993
208 0.00157687
209 0.00154449
210 0.00151277
211 0.0014817
212 0.00145128
213 0.00142147
214 0.00139228
215 0.00136369
216 0.00133569
217 0.00130826
218 0.00128139
219 0.00125508
220 0.00122931
221 0.00120406
222 0.00117933
223 0.00115512
224 0.0011314
225 0.00110816
226 0.00108541
227 0.00106312
228 0.00104128
229 0.0010199
230 0.000998957
231 0.000978443
232 0.00095835
233 0.00093867
234 0.000919394
235 0.000900514
236 0.000882021
237 0.000863908
238 0.000846168
239 0.000828791
240 0.000811772
241 0.000795101
242 0.000778774
243 0.000762781
244 0.000747117
245 0.000731775
246 0.000716747
247 0.000702029
248 0.000687612
249 0.000673492
250 0.000659661
251 0.000646115
252 0.000632846
253 0.000619851
254 0.000607122
255 0.000594654
256 0.000582443
257 0.000570482
258 0.000558767
259 0.000547292
260 0.000536053
261 0.000525045
262 0.000514263
263 0.000503702
264 0.000493359
265 0.000483227
266 0.000473304
267 0.000463584
268 0.000454065
269 0.00044474
270 0.000435607
271 0.000426662
272 0.0004179
273 0.000409318
274 0.000400913
275 0.00039268
276 0.000384616
277 0.000376718
278 0.000368982
279 0.000361404
280 0.000353983
281 0.000346714
282 0.000339594
283 0.00033262
284 0.000325789
285 0.000319099
286 0.000312546
287 0.000306128
288 0.000299841
289 0.000293684
290 0.000287653
291 0.000281746
292 0.00027596
293 0.000270293
294 0.000264743
295 0.000259306
296 0.000253981
297 0.000248765
298 0.000243657
299 0.000238653
300 0.000233752
301 0.000228952
302 0.000224251
303 0.000219645
304 0.000215135
305 0.000210717
306 0.00020639
307 0.000202152
308 0.000198
309 0.000193934
310 0.000189952
311 0.000186051
312 0.00018223
313 0.000178488
314 0.000174823
315 0.000171233
316 0.000167716
317 0.000164272
318 0.000160899
319 0.000157595
320 0.000154358
321 0.000151189
322 0.000148084
323 0.000145043
324 0.000142064
325 0.000139147
326 0.00013629
327 0.000133491
328 0.000130749
329 0.000128064
330 0.000125435
331 0.000122859
332 0.000120336
333 0.000117865
334 0.000115444
335 0.000113074
336 0.000110751
337 0.000108477
338 0.00010625
339 0.000104068
340 0.000101931
341 9.98374e-05
342 9.77872e-05
343 9.5779e-05
344 9.38122e-05
345 9.18857e-05
346 8.99988e-05
347 8.81506e-05
348 8.63404e-05
349 8.45674e-05
350 8.28307e-05
351 8.11298e-05
352 7.94637e-05
353 7.78319e-05
354 7.62336e-05
355 7.46681e-05
356 7.31347e-05
357 7.16329e-05
358 7.01619e-05
359 6.87211e-05
360 6.73098e-05
361 6.59276e-05
362 6.45737e-05
363 6.32477e-05
364 6.19489e-05
365 6.06767e-05
366 5.94307e-05
367 5.82102e-05
368 5.70149e-05
369 5.5844e-05
370 5.46973e-05
371 5.3574e-05
372 5.24739e-05
373 5.13963e-05
374 5.03408e-05
375 4.93071e-05
376 4.82945e-05
377 4.73028e-05
378 4.63314e-05
379 4.53799e-05
380 4.4448e-05
381 4.35353e-05
382 4.26413e-05
383 4.17656e-05
384 4.09079e-05
385 4.00679e-05
386 3.9245e-05
387 3.84391e-05
388 3.76498e-05
389 3.68766e-05
390 3.61193e-05
391 3.53776e-05
392 3.46511e-05
393 3.39395e-05
394 3.32426e-05
395 3.25599e-05
396 3.18913e-05
397 3.12364e-05
398 3.05949e-05
399 2.99666e-05
400 2.93513e-05
401 2.87485e-05
402 2.81582e-05
403 2.75799e-05
404 2.70135e-05
405 2.64588e-05
406 2.59155e-05
407 2.53833e-05
408 2.4862e-05
409 2.43515e-05
410 2.38514e-05
411 2.33616e-05
412 2.28819e-05
413 2.2412e-05
414 2.19517e-05
415 2.15009e-05
416 2.10594e-05
417 2.06269e-05
418 2.02034e-05
419 1.97885e-05
420 1.93821e-05
421 1.89841e-05
422 1.85942e-05
423 1.82124e-05
424 1.78384e-05
425 1.74721e-05
426 1.71133e-05
427 1.67618e-05
428 1.64176e-05
429 1.60805e-05
430 1.57503e-05
431 1.54268e-05
432 1.511e-05
433 1.47997e-05
434 1.44958e-05
435 1.41981e-05
436 1.39066e-05
437 1.3621e-05
438 1.33413e-05
439 1.30673e-05
440 1.2799e-05
441 1.25361e-05
442 1.22787e-05
443 1.20266e-05
444 1.17796e-05
445 1.15377e-05
446 1.13007e-05
447 1.10687e-05
448 1.08414e-05
449 1.06187e-05
450 1.04007e-05
451 1.01871e-05
452 9.97791e-06
453 9.773e-06
454 9.57231e-06
455 9.37574e-06
456 9.1832e-06
457 8.99462e-06
458 8.80991e-06
459 8.629e-06
460 8.4518e-06
461 8.27824e-06
462 8.10824e-06
463 7.94173e-06
464 7.77864e-06
465 7.61891e-06
466 7.46245e-06
467 7.3092e-06
468 7.1591e-06
469 7.01209e-06
470 6.86809e-06
471 6.72705e-06
472 6.58891e-06
473 6.4536e-06
474 6.32107e-06
475 6.19127e-06
476 6.06413e-06
477 5.9396e-06
478 5.81763e-06
479 5.69816e-06
480 5.58114e-06
481 5.46653e-06
482 5.35427e-06
483 5.24432e-06
484 5.13663e-06
485 5.03114e-06
486 4.92783e-06
487 4.82663e-06
488 4.72751e-06
489 4.63043e-06
490 4.53534e-06
491 4.44221e-06
492 4.35099e-06
493 4.26164e-06
494 4.17412e-06
495 4.0884e-06
496 4.00445e-06
497 3.92221e-06
498 3.84167e-06
499 3.76278e-06
500 3.68551e-06
501 3.60982e-06
502 3.53569e-06
503 3.46309e-06
504 3.39197e-06
505 3.32231e-06
506 3.25409e-06
507 3.18727e-06
508 3.12181e-06
509 3.05771e-06
510 2.99491e-06
511 2.93341e-06
512 2.87317e-06
513 2.81417e-06
514 2.75638e-06
515 2.69978e-06
516 2.64434e-06
517 2.59003e-06
518 2.53685e-06
519 2.48475e-06
520 2.43372e-06
521 2.38375e-06
522 2.3348e-06
523 2.28685e-06
524 2.23989e-06
525 2.19389e-06
526 2.14884e-06
527 2.10471e-06
528 2.06149e-06
529 2.01916e-06
530 1.97769e-06
531 1.93708e-06
532 1.8973e-06
533 1.85834e-06
534 1.82018e-06
535 1.7828e-06
536 1.74619e-06
537 1.71033e-06
538 1.67521e-06
539 1.6408e-06
540 1.60711e-06
541 1.57411e-06
542 1.54178e-06
543 1.51012e-06
544 1.47911e-06
545 1.44874e-06
546 1.41898e-06
547 1.38985e-06
548 1.3613e-06
549 1.33335e-06
550 1.30597e-06
551 1.27915e-06
552 1.25288e-06
553 1.22715e-06
554 1.20195e-06
555 1.17727e-06
556 1.15309e-06
557 1.12941e-06
558 1.10622e-06
559 1.0835e-06
560 1.06125e-06
561 1.03946e-06
562 1.01812e-06
563 9.97208e-07
564 9.7673e-07
565 9.56672e-07
566 9.37026e-07
567 9.17784e-07
568 8.98937e-07
569 8.80477e-07
570 8.62396e-07
571 8.44686e-07
572 8.2734e-07
573 8.1035e-07
574 7.93709e-07
575 7.7741e-07
576 7.61446e-07
577 7.45809e-07
578 7.30493e-07
579 7.15492e-07
580 7.00799e-07
581 6.86408e-07
582 6.72312e-07
583 6.58506e-07
584 6.44983e-07
585 6.31738e-07
586 6.18765e-07
587 6.06059e-07
588 5.93613e-07
589 5.81423e-07
590 5.69483e-07
591 5.57788e-07
592 5.46334e-07
593 5.35115e-07
594 5.24126e-07
595 5.13363e-07
596 5.02821e-07
597 4.92495e-07
598 4.82381e-07
599 4.72475e-07
600 4.62773e-07
601 4.5327e-07
602 4.43961e-07
603 4.34844e-07
604 4.25915e-07
605 4.17168e-07
606 4.08602e-07
607 4.00211e-07
608 3.91992e-07
609 3.83942e-07
610 3.76058e-07
611 3.68336e-07
612 3.60772e-07
613 3.53363e-07
614 3.46106e-07
615 3.38999e-07
616 3.32037e-07
617 3.25219e-07
618 3.1854e-07
619 3.11999e-07
620 3.05592e-07
621 2.99316e-07
622 2.9317e-07
623 2.87149e-07
624 2.81253e-07
625 2.75477e-07
626 2.6982e-07
627 2.64279e-07
628 2.58852e-07
629 2.53536e-07
630 2.4833e-07
631 2.4323e-07
632 2.38235e-07
633 2.33343e-07
634 2.28551e-07
635 2.23858e-07
636 2.19261e-07
637 2.14758e-07
638 2.10348e-07
639 2.06029e-07
640 2.01798e-07
641 1.97654e-07
642 1.93595e-07
643 1.89619e-07
644 1.85725e-07
645 1.81911e-07
646 1.78176e-07
647 1.74517e-07
648 1.70933e-07
649 1.67423e-07
650 1.63985e-07
651 1.60617e-07
652 1.57319e-07
653 1.54088e-07
654 1.50924e-07
655 1.47825e-07
656 1.44789e-07
657 1.41816e-07
658 1.38903e-07
659 1.36051e-07
660 1.33257e-07
661 1.30521e-07
662 1.2784e-07
663 1.25215e-07
664 1.22644e-07
665 1.20125e-07
666 1.17658e-07
667 1.15242e-07
668 1.12876e-07
669 1.10558e-07
670 1.08287e-07
671 1.06063e-07
672 1.03885e-07
673 1.01752e-07
674 9.96626e-08
675 9.76159e-08
676 9.56113e-08
677 9.36479e-08
678 9.17248e-08
679 8.98412e-08
680 8.79963e-08
681 8.61892e-08
682 8.44193e-08
683 8.26857e-08
684 8.09877e-08
685 7.93246e-08
686 7.76956e-08
687 7.61001e-08
688 7.45373e-08
689 7.30067e-08
690 7.15075e-08
691 7.0039e-08
692 6.86007e-08
693 6.7192e-08
694 6.58122e-08
695 6.44607e-08
696 6.31369e-08
697 6.18404e-08
698 6.05705e-08
699 5.93266e-08
700 5.81083e-08
701 5.6915e-08
702 5.57463e-08
703 5.46015e-08
704 5.34802e-08
705 5.2382e-08
706 5.13063e-08
707 5.02527e-08
708 4.92207e-08
709 4.821e-08
710 4.72199e-08
711 4.62503e-08
712 4.53005e-08
713 4.43702e-08
714 4.34591e-08
715 4.25666e-08
716 4.16925e-08
717 4.08363e-08
718 3.99977e-08
719 3.91763e-08
720 3.83718e-08
721 3.75838e-08
722 3.6812e-08
723 3.60561e-08
724 3.53157e-08
725 3.45904e-08
726 3.38801e-08
727 3.31844e-08
728 3.25029e-08
729 3.18354e-08
730 3.11817e-08
731 3.05414e-08
732 2.99142e-08
733 2.92999e-08
734 2.86982e-08
735 2.81088e-08
736 2.75316e-08
737 2.69662e-08
738 2.64125e-08
739 2.58701e-08
740 2.53388e-08
741 2.48185e-08
742 2.43088e-08
743 2.38096e-08
744 2.33207e-08
745 2.28418e-08
746 2.23727e-08
747 2.19133e-08
748 2.14633e-08
749 2.10225e-08
750 2.05908e-08
751 2.0168e-08
752 1.97538e-08
753 1.93482e-08
754 1.89508e-08
755 1.85617e-08
756 1.81805e-08
757 1.78072e-08
758 1.74415e-08
759 1.70833e-08
760 1.67325e-08
761 1.63889e-08
762 1.60523e-08
763 1.57227e-08
764 1.53998e-08
765 1.50836e-08
766 1.47738e-08
767 1.44704e-08
768 1.41733e-08
769 1.38822e-08
770 1.35971e-08
771 1.33179e-08
772 1.30444e-08
773 1.27766e-08
774 1.25142e-08
775 1.22572e-08
776 1.20055e-08
777 1.1759e-08
778 1.15175e-08
779 1.1281e-08
780 1.10493e-08
781 1.08224e-08
782 1.06002e-08
783 1.03825e-08
784 1.01693e-08
785 9.96044e-09
786 9.75589e-09
787 9.55555e-09
788 9.35932e-09
789 9.16712e-09
790 8.97887e-09
791 8.79449e-09
792 8.61389e-09
793 8.437e-09
794 8.26374e-09
795 8.09404e-09
796 7.92783e-09
797 7.76502e-09
798 7.60557e-09
799 7.44938e-09
800 7.2964e-09
801 7.14657e-09
802 6.99981e-09
803 6.85607e-09
804 6.71527e-09
805 6.57737e-09
806 6.4423e-09
807 6.31001e-09
808 6.18043e-09
809 6.05351e-09
810 5.9292e-09
811 5.80744e-09
812 5.68818e-09
813 5.57137e-09
814 5.45696e-09
815 5.3449e-09
816 5.23514e-09
817 5.12763e-09
818 5.02233e-09
819 4.9192e-09
820 4.81818e-09
821 4.71924e-09
822 4.62232e-09
823 4.5274e-09
824 4.43443e-09
825 4.34337e-09
826 4.25417e-09
827 4.16681e-09
828 4.08124e-09
829 3.99743e-09
830 3.91535e-09
831 3.83494e-09
832 3.75619e-09
833 3.67905e-09
834 3.6035e-09
835 3.5295e-09
836 3.45702e-09
837 3.38603e-09
838 3.3165e-09
839 3.24839e-09
840 3.18168e-09
841 3.11635e-09
842 3.05235e-09
843 2.98967e-09
844 2.92828e-09
845 2.86814e-09
846 2.80924e-09
847 2.75155e-09
848 2.69505e-09
849 2.63971e-09
850 2.5855e-09
851 2.5324e-09
852 2.4804e-09
853 2.42946e-09
854 2.37957e-09
855 2.33071e-09
856 2.28284e-09
857 2.23597e-09
858 2.19005e-09
859 2.14508e-09
860 2.10103e-09
861 2.05788e-09
862 2.01562e-09
863 1.97423e-09
864 1.93369e-09
865 1.89398e-09
866 1.85508e-09
867 1.81699e-09
868 1.77968e-09
869 1.74313e-09
870 1.70733e-09
871 1.67227e-09
872 1.63793e-09
873 1.6043e-09
874 1.57135e-09
875 1.53908e-09
876 1.50748e-09
877 1.47652e-09
878 1.4462e-09
879 1.4165e-09
880 1.38741e-09
881 1.35892e-09
882 1.33101e-09
883 1.30368e-09
884 1.27691e-09
885 1.25069e-09
886 1.225e-09
887 1.19985e-09
888 1.17521e-09
889 1.15108e-09
890 1.12744e-09
891 1.10428e-09
892 1.08161e-09
893 1.0594e-09
894 1.03764e-09
895 1.01633e-09
896 9.95462e-10
897 9.75019e-10
898 9.54997e-10
899 9.35386e-10
900 9.16177e-10
901 8.97363e-10
902 8.78935e-10
903 8.60886e-10
904 8.43207e-10
905 8.25891e-10
906 8.08931e-10
907 7.9232e-10
908 7.76049e-10
909 7.60112e-10
910 7.44503e-10
911 7.29214e-10
912 7.1424e-10
913 6.99572e-10
914 6.85206e-10
915 6.71135e-10
916 6.57353e-10
917 6.43854e-10
918 6.30632e-10
919 6.17682e-10
920 6.04998e-10
921 5.92573e-10
922 5.80405e-10
923 5.68486e-10
924 5.56812e-10
925 5.45377e-10
926 5.34178e-10
927 5.23208e-10
928 5.12464e-10
929 5.0194e-10
930 4.91632e-10
931 4.81537e-10
932 4.71648e-10
933 4.61962e-10
934 4.52476e-10
935 4.43184e-10
936 4.34083e-10
937 4.25169e-10
938 4.16438e-10
939 4.07886e-10
940 3.9951e-10
941 3.91306e-10
942 3.8327e-10
943 3.754e-10
944 3.6769e-10
945 3.6014e-10
946 3.52744e-10
947 3.455e-10
948 3.38405e-10
949 3.31456e-10
950 3.24649e-10
951 3.17983e-10
952 3.11453e-10
953 3.05057e-10
954 2.98792e-10
955 2.92656e-10
956 2.86647e-10
957 2.8076e-10
958 2.74995e-10
959 2.69348e-10
960 2.63816e-10
961 2.58399e-10
962 2.53092e-10
963 2.47895e-10
964 2.42804e-10
965 2.37818e-10
966 2.32935e-10
967 2.28151e-10
968 2.23466e-10
969 2.18877e-10
970 2.14382e-10
971 2.0998e-10
972 2.05668e-10
973 2.01444e-10
974 1.97308e-10
975 1.93256e-10
976 1.89287e-10
977 1.854e-10
978 1.81593e-10
979 1.77864e-10
980 1.74211e-10
981 1.70633e-10
982 1.67129e-10
983 1.63697e-10
984 1.60336e-10
985 1.57043e-10
986 1.53818e-10
987 1.50659e-10
988 1.47566e-10
989 1.44535e-10
990 1.41567e-10
991 1.3866e-10
992 1.35813e-10
993 1.33024e-10
994 1.30292e-10
995 1.27616e-10
996 1.24996e-10
997 1.22429e-10
998 1.19915e-10
999 1.17452e-10
1000 1.1504e-10
