VARIABLES="iterations", "scaled residual"
ZONE T=""
0 1
0 1
1 0.0748015
2 0.00250032
3 0.000107698
4 5.23072e-06
5 1.36752e-07
6 3.45768e-09
7 3.57554e-11
8 6.36758e-13
