VARIABLES="iterations", "scaled residual"
ZONE T=""
0 1
0 1
1 0.0354846
2 0.000557147
3 4.98699e-06
4 7.53472e-09
5 1.41946e-11
6 2.76e-14
